<?xml version="1.0" ?>
<VTKFile type="PolyData" version="0.1" byte_order="LittleEndian">
<PolyData>
<Piece NumberOfPoints="         110" NumberOfVerts="           0" NumberOfLines="           0" NumberOfStrips="           0" NumberOfPolys="           0">
<Points>
<DataArray NumberOfComponents="3" format="ascii" type="Float32">
     0.00000000      0.00000000      0.00000000      0.00000100      0.00000000      0.00000000      0.00000200      0.00000000      0.00000000      0.00000300      0.00000000      0.00000000      0.00000400      0.00000000      0.00000000      0.00000500      0.00000000      0.00000000      0.00000600      0.00000000      0.00000000      0.00000700      0.00000000      0.00000000      0.00000800      0.00000000      0.00000000      0.00000900      0.00000000      0.00000000      0.00001000      0.00000000      0.00000000 
     0.00000000      0.00000100      0.00000000      0.00000100      0.00000100      0.00000000      0.00000200      0.00000100      0.00000000      0.00000300      0.00000100      0.00000000      0.00000400      0.00000100      0.00000000      0.00000500      0.00000100      0.00000000      0.00000600      0.00000100      0.00000000      0.00000700      0.00000100      0.00000000      0.00000800      0.00000100      0.00000000      0.00000900      0.00000100      0.00000000      0.00001000      0.00000100      0.00000000 
     0.00000000      0.00000200      0.00000000      0.00000100      0.00000200      0.00000000      0.00000200      0.00000200      0.00000000      0.00000300      0.00000200      0.00000000      0.00000400      0.00000200      0.00000000      0.00000500      0.00000200      0.00000000      0.00000600      0.00000200      0.00000000      0.00000700      0.00000200      0.00000000      0.00000800      0.00000200      0.00000000      0.00000900      0.00000200      0.00000000      0.00001000      0.00000200      0.00000000 
     0.00000000      0.00000300      0.00000000      0.00000100      0.00000300      0.00000000      0.00000200      0.00000300      0.00000000      0.00000300      0.00000300      0.00000000      0.00000400      0.00000300      0.00000000      0.00000500      0.00000300      0.00000000      0.00000600      0.00000300      0.00000000      0.00000700      0.00000300      0.00000000      0.00000800      0.00000300      0.00000000      0.00000900      0.00000300      0.00000000      0.00001000      0.00000300      0.00000000 
     0.00000000      0.00000400      0.00000000      0.00000100      0.00000400      0.00000000      0.00000200      0.00000400      0.00000000      0.00000300      0.00000400      0.00000000      0.00000400      0.00000400      0.00000000      0.00000500      0.00000400      0.00000000      0.00000600      0.00000400      0.00000000      0.00000700      0.00000400      0.00000000      0.00000800      0.00000400      0.00000000      0.00000900      0.00000400      0.00000000      0.00001000      0.00000400      0.00000000 
     0.00000000      0.00000500      0.00000000      0.00000100      0.00000500      0.00000000      0.00000200      0.00000500      0.00000000      0.00000300      0.00000500      0.00000000      0.00000400      0.00000500      0.00000000      0.00000500      0.00000500      0.00000000      0.00000600      0.00000500      0.00000000      0.00000700      0.00000500      0.00000000      0.00000800      0.00000500      0.00000000      0.00000900      0.00000500      0.00000000      0.00001000      0.00000500      0.00000000 
     0.00000000      0.00000600      0.00000000      0.00000100      0.00000600      0.00000000      0.00000200      0.00000600      0.00000000      0.00000300      0.00000600      0.00000000      0.00000400      0.00000600      0.00000000      0.00000500      0.00000600      0.00000000      0.00000600      0.00000600      0.00000000      0.00000700      0.00000600      0.00000000      0.00000800      0.00000600      0.00000000      0.00000900      0.00000600      0.00000000      0.00001000      0.00000600      0.00000000 
     0.00000000      0.00000700      0.00000000      0.00000100      0.00000700      0.00000000      0.00000200      0.00000700      0.00000000      0.00000300      0.00000700      0.00000000      0.00000400      0.00000700      0.00000000      0.00000500      0.00000700      0.00000000      0.00000600      0.00000700      0.00000000      0.00000700      0.00000700      0.00000000      0.00000800      0.00000700      0.00000000      0.00000900      0.00000700      0.00000000      0.00001000      0.00000700      0.00000000 
     0.00000000      0.00000800      0.00000000      0.00000100      0.00000800      0.00000000      0.00000200      0.00000800      0.00000000      0.00000300      0.00000800      0.00000000      0.00000400      0.00000800      0.00000000      0.00000500      0.00000800      0.00000000      0.00000600      0.00000800      0.00000000      0.00000700      0.00000800      0.00000000      0.00000800      0.00000800      0.00000000      0.00000900      0.00000800      0.00000000      0.00001000      0.00000800      0.00000000 
     0.00000000      0.00000900      0.00000000      0.00000100      0.00000900      0.00000000      0.00000200      0.00000900      0.00000000      0.00000300      0.00000900      0.00000000      0.00000400      0.00000900      0.00000000      0.00000500      0.00000900      0.00000000      0.00000600      0.00000900      0.00000000      0.00000700      0.00000900      0.00000000      0.00000800      0.00000900      0.00000000      0.00000900      0.00000900      0.00000000      0.00001000      0.00000900      0.00000000 
</DataArray>
</Points>
<PointData>
<DataArray Name="dpore" format="ascii" type="Float32">
     0.00000047      0.00000024      0.00000020      0.00000024      0.00000070      0.00000032      0.00000050      0.00000014      0.00000052      0.00000037      0.00000050 
     0.00000057      0.00000010      0.00000048      0.00000029      0.00000023      0.00000061      0.00000032      0.00000054      0.00000040      0.00000012      0.00000047 
     0.00000025      0.00000028      0.00000021      0.00000041      0.00000010      0.00000025      0.00000030      0.00000007      0.00000068      0.00000052      0.00000054 
     0.00000068      0.00000008      0.00000039      0.00000049      0.00000014      0.00000037      0.00000039      0.00000014      0.00000023      0.00000062      0.00000059 
     0.00000030      0.00000020      0.00000014      0.00000025      0.00000053      0.00000034      0.00000064      0.00000031      0.00000015      0.00000026      0.00000040 
     0.00000063      0.00000008      0.00000049      0.00000040      0.00000023      0.00000051      0.00000034      0.00000007      0.00000013      0.00000019      0.00000041 
     0.00000049      0.00000022      0.00000040      0.00000064      0.00000034      0.00000015      0.00000069      0.00000044      0.00000029      0.00000029      0.00000040 
     0.00000041      0.00000049      0.00000031      0.00000061      0.00000059      0.00000060      0.00000036      0.00000011      0.00000057      0.00000023      0.00000017 
     0.00000056      0.00000027      0.00000041      0.00000034      0.00000061      0.00000043      0.00000068      0.00000010      0.00000044      0.00000068      0.00000042 
     0.00000024      0.00000019      0.00000033      0.00000048      0.00000027      0.00000033      0.00000029      0.00000062      0.00000070      0.00000055      0.00000067 
</DataArray>
<DataArray Name="Saturation" format="ascii" type="Float32">
     1.00000000     -1.00000000     -1.00000000     -1.00000000     -1.00000000     -1.00000000     -1.00000000     -1.00000000     -1.00000000     -1.00000000      1.00000000 
     1.00000000      1.00000000     -1.00000000     -1.00000000     -1.00000000     -1.00000000     -1.00000000     -1.00000000     -1.00000000     -1.00000000      1.00000000 
     1.00000000     -1.00000000     -1.00000000     -1.00000000     -1.00000000     -1.00000000     -1.00000000     -1.00000000     -1.00000000     -1.00000000      1.00000000 
     1.00000000     -1.00000000     -1.00000000     -1.00000000     -1.00000000     -1.00000000     -1.00000000     -1.00000000     -1.00000000     -1.00000000      1.00000000 
     1.00000000     -1.00000000     -1.00000000     -1.00000000     -1.00000000     -1.00000000     -1.00000000     -1.00000000     -1.00000000     -1.00000000      1.00000000 
     1.00000000     -1.00000000     -1.00000000     -1.00000000     -1.00000000     -1.00000000     -1.00000000     -1.00000000     -1.00000000     -1.00000000      1.00000000 
     1.00000000      0.00000000     -1.00000000     -1.00000000     -1.00000000     -1.00000000     -1.00000000     -1.00000000     -1.00000000     -1.00000000      1.00000000 
     1.00000000     -1.00000000     -1.00000000     -1.00000000     -1.00000000     -1.00000000     -1.00000000     -1.00000000     -1.00000000     -1.00000000      1.00000000 
     1.00000000     -1.00000000     -1.00000000     -1.00000000     -1.00000000     -1.00000000     -1.00000000     -1.00000000     -1.00000000     -1.00000000      1.00000000 
     1.00000000     -1.00000000     -1.00000000     -1.00000000     -1.00000000     -1.00000000     -1.00000000     -1.00000000     -1.00000000     -1.00000000      1.00000000 
</DataArray>
</PointData>
</Piece>
</PolyData>
</VTKFile>
