<?xml version="1.0" ?>
<VTKFile type="PolyData" version="0.1" byte_order="LittleEndian">
<PolyData>
<Piece NumberOfPoints="         110" NumberOfVerts="           0" NumberOfLines="           0" NumberOfStrips="           0" NumberOfPolys="           0">
<Points>
<DataArray NumberOfComponents="3" format="ascii" type="Float32">
     0.00000000      0.00000000      0.00000050      0.00000100      0.00000000      0.00000050      0.00000200      0.00000000      0.00000050      0.00000300      0.00000000      0.00000050      0.00000400      0.00000000      0.00000050      0.00000500      0.00000000      0.00000050      0.00000600      0.00000000      0.00000050      0.00000700      0.00000000      0.00000050      0.00000800      0.00000000      0.00000050      0.00000900      0.00000000      0.00000050      0.00001000      0.00000000      0.00000050 
     0.00000000      0.00000100      0.00000050      0.00000100      0.00000100      0.00000050      0.00000200      0.00000100      0.00000050      0.00000300      0.00000100      0.00000050      0.00000400      0.00000100      0.00000050      0.00000500      0.00000100      0.00000050      0.00000600      0.00000100      0.00000050      0.00000700      0.00000100      0.00000050      0.00000800      0.00000100      0.00000050      0.00000900      0.00000100      0.00000050      0.00001000      0.00000100      0.00000050 
     0.00000000      0.00000200      0.00000050      0.00000100      0.00000200      0.00000050      0.00000200      0.00000200      0.00000050      0.00000300      0.00000200      0.00000050      0.00000400      0.00000200      0.00000050      0.00000500      0.00000200      0.00000050      0.00000600      0.00000200      0.00000050      0.00000700      0.00000200      0.00000050      0.00000800      0.00000200      0.00000050      0.00000900      0.00000200      0.00000050      0.00001000      0.00000200      0.00000050 
     0.00000000      0.00000300      0.00000050      0.00000100      0.00000300      0.00000050      0.00000200      0.00000300      0.00000050      0.00000300      0.00000300      0.00000050      0.00000400      0.00000300      0.00000050      0.00000500      0.00000300      0.00000050      0.00000600      0.00000300      0.00000050      0.00000700      0.00000300      0.00000050      0.00000800      0.00000300      0.00000050      0.00000900      0.00000300      0.00000050      0.00001000      0.00000300      0.00000050 
     0.00000000      0.00000400      0.00000050      0.00000100      0.00000400      0.00000050      0.00000200      0.00000400      0.00000050      0.00000300      0.00000400      0.00000050      0.00000400      0.00000400      0.00000050      0.00000500      0.00000400      0.00000050      0.00000600      0.00000400      0.00000050      0.00000700      0.00000400      0.00000050      0.00000800      0.00000400      0.00000050      0.00000900      0.00000400      0.00000050      0.00001000      0.00000400      0.00000050 
     0.00000000      0.00000500      0.00000050      0.00000100      0.00000500      0.00000050      0.00000200      0.00000500      0.00000050      0.00000300      0.00000500      0.00000050      0.00000400      0.00000500      0.00000050      0.00000500      0.00000500      0.00000050      0.00000600      0.00000500      0.00000050      0.00000700      0.00000500      0.00000050      0.00000800      0.00000500      0.00000050      0.00000900      0.00000500      0.00000050      0.00001000      0.00000500      0.00000050 
     0.00000000      0.00000600      0.00000050      0.00000100      0.00000600      0.00000050      0.00000200      0.00000600      0.00000050      0.00000300      0.00000600      0.00000050      0.00000400      0.00000600      0.00000050      0.00000500      0.00000600      0.00000050      0.00000600      0.00000600      0.00000050      0.00000700      0.00000600      0.00000050      0.00000800      0.00000600      0.00000050      0.00000900      0.00000600      0.00000050      0.00001000      0.00000600      0.00000050 
     0.00000000      0.00000700      0.00000050      0.00000100      0.00000700      0.00000050      0.00000200      0.00000700      0.00000050      0.00000300      0.00000700      0.00000050      0.00000400      0.00000700      0.00000050      0.00000500      0.00000700      0.00000050      0.00000600      0.00000700      0.00000050      0.00000700      0.00000700      0.00000050      0.00000800      0.00000700      0.00000050      0.00000900      0.00000700      0.00000050      0.00001000      0.00000700      0.00000050 
     0.00000000      0.00000800      0.00000050      0.00000100      0.00000800      0.00000050      0.00000200      0.00000800      0.00000050      0.00000300      0.00000800      0.00000050      0.00000400      0.00000800      0.00000050      0.00000500      0.00000800      0.00000050      0.00000600      0.00000800      0.00000050      0.00000700      0.00000800      0.00000050      0.00000800      0.00000800      0.00000050      0.00000900      0.00000800      0.00000050      0.00001000      0.00000800      0.00000050 
     0.00000000      0.00000900      0.00000050      0.00000100      0.00000900      0.00000050      0.00000200      0.00000900      0.00000050      0.00000300      0.00000900      0.00000050      0.00000400      0.00000900      0.00000050      0.00000500      0.00000900      0.00000050      0.00000600      0.00000900      0.00000050      0.00000700      0.00000900      0.00000050      0.00000800      0.00000900      0.00000050      0.00000900      0.00000900      0.00000050      0.00001000      0.00000900      0.00000050 
</DataArray>
</Points>
<PointData>
<DataArray Name="dthz" format="ascii" type="Float32">
     0.00000000      0.00000000      0.00000000      0.00000000      0.00000000      0.00000000      0.00000000      0.00000000      0.00000000      0.00000000      0.00000000 
     0.00000000      0.00000000      0.00000000      0.00000000      0.00000000      0.00000000      0.00000000      0.00000000      0.00000000      0.00000000      0.00000000 
     0.00000000      0.00000000      0.00000000      0.00000000      0.00000000      0.00000000      0.00000000      0.00000000      0.00000000      0.00000000      0.00000000 
     0.00000000      0.00000000      0.00000000      0.00000000      0.00000000      0.00000000      0.00000000      0.00000000      0.00000000      0.00000000      0.00000000 
     0.00000000      0.00000000      0.00000000      0.00000000      0.00000000      0.00000000      0.00000000      0.00000000      0.00000000      0.00000000      0.00000000 
     0.00000000      0.00000000      0.00000000      0.00000000      0.00000000      0.00000000      0.00000000      0.00000000      0.00000000      0.00000000      0.00000000 
     0.00000000      0.00000000      0.00000000      0.00000000      0.00000000      0.00000000      0.00000000      0.00000000      0.00000000      0.00000000      0.00000000 
     0.00000000      0.00000000      0.00000000      0.00000000      0.00000000      0.00000000      0.00000000      0.00000000      0.00000000      0.00000000      0.00000000 
     0.00000000      0.00000000      0.00000000      0.00000000      0.00000000      0.00000000      0.00000000      0.00000000      0.00000000      0.00000000      0.00000000 
     0.00000000      0.00000000      0.00000000      0.00000000      0.00000000      0.00000000      0.00000000      0.00000000      0.00000000      0.00000000      0.00000000 
</DataArray>
<DataArray Name="Saturation" format="ascii" type="Float32">
     1.00000000      0.00000000      0.00000000      0.00000000      0.00000000      0.00000000      0.00000000      0.00000000      0.00000000      0.00000000      1.00000000 
     1.00000000      0.00000000      0.00000000      0.00000000      0.00000000      0.00000000      0.00000000      0.00000000      0.00000000      0.00000000      1.00000000 
     1.00000000      0.00000000      0.00000000      0.00000000      0.00000000      0.00000000      0.00000000      0.00000000      0.00000000      0.00000000      1.00000000 
     1.00000000      0.00000000      0.00000000      0.00000000      0.00000000      0.00000000      0.00000000      0.00000000      0.00000000      0.00000000      1.00000000 
     1.00000000      0.00000000      0.00000000      0.00000000      0.00000000      0.00000000      0.00000000      0.00000000      0.00000000      0.00000000      1.00000000 
     1.00000000      0.00000000      0.00000000      0.00000000      0.00000000      0.00000000      0.00000000      0.00000000      0.00000000      0.00000000      1.00000000 
     1.00000000      0.00000000      0.00000000      0.00000000      0.00000000      0.00000000      0.00000000      0.00000000      0.00000000      0.00000000      1.00000000 
     1.00000000      0.00000000      0.00000000      0.00000000      0.00000000      0.00000000      0.00000000      0.00000000      0.00000000      0.00000000      1.00000000 
     1.00000000      0.00000000      0.00000000      0.00000000      0.00000000      0.00000000      0.00000000      0.00000000      0.00000000      0.00000000      1.00000000 
     1.00000000      0.00000000      0.00000000      0.00000000      0.00000000      0.00000000      0.00000000      0.00000000      0.00000000      0.00000000      1.00000000 
</DataArray>
</PointData>
</Piece>
</PolyData>
</VTKFile>
